{
    "B-000001945-003W":
        {
            "myid": "B-000001945-003W",
            "type": "ANTIBODY_DRUG_CONJUGATE",
            "link": "https://iapi-test.merck.com/rlsc-entity-registration/v1/entities/B-000001945-003W",
            "format": null,
            "structure": null,
            "children": null,
            "parent": "B-000001945",
            "attributes": {
                "theoreticalIsoelectricPoints": null,
                "molIds": [
                    {
                        "id": 7560,
                        "mrnaDMolId": null,
                        "activeFlag": "T"
                    }
                ],
                "saltRatio": null,
                "registrationStatus": null,
                "projectTargetId": null,
                "notes": [
                    {
                        "id": 673,
                        "notes": "material notes",
                        "activeFlag": "T"
                    }
                ],
                "registrationTypeId": "4988657",
                "chains": [
                    {
                        "id": 48057,
                        "chainMaterialId": null,
                        "stoichiometry": "sdffedssa",
                        "activeFlag": "T",
                        "chainTypeId": "4990342",
                        "mutationFlag": null,
                        "chainType": "vector backbone",
                        "materialTypeId": "4988856",
                        "materialType": "peptide"
                    }
                ],
                "fileAttachmentId": "ftgyuiop",
                "molecularWeightWithSaltUnit": null,
                "therapeuticModalityId": "1858110",
                "scientistPersonFirstName": null,
                "registrationRequestId": "ftgyuiop",
                "merckName": null,
                "parentProjectId": null,
                "registrationId": 91869,
                "registrationDate": null,
                "scientistPersonLastName": null,
                "darIntended": null,
                "scientistPersonId": null,
                "compoundId": "B-000001945-003W",
                "targetSiteId": "ftgyuiop",
                "projectTargetName": null,
                "legalHoldStatus": "ftgyuiop",
                "molecularWeightWithSaltUnitId": null,
                "synonyms": [
                    {
                        "id": 182735,
                        "comments": "fdf",
                        "activeFlag": "T",
                        "synonymType": null,
                        "synonymValue": null,
                        "synonymTypeId": null
                    }
                ],
                "payLoadClass": null,
                "antibodyid": null,
                "notebookReference": null,
                "theoreticalMolecularWeightUnit": null,
                "antibodyBioregId": null,
                "safetyProfileId": "ftgyuiop",
                "registrationType": "target",
                "originatingSystem": "REGMOL",
                "modifiedDate": null,
                "theoreticalMolecularWeight": "3",
                "projectName": "project",
                "projectId": null,
                "therapeuticModality": "peptide",
                "parents": [
                    {
                        "id": 183630,
                        "parentMaterialId": null,
                        "activeFlag": "T",
                        "parentFormula": null,
                        "parentMolecularWeight": null,
                        "parentMolecularWeightUnit": "millimole per liter",
                        "parentSolvateCoefficient": null,
                        "parentMolecularWeightUnitId": "4991113",
                        "baseId": "34"
                    }
                ],
                "components": [
                    {
                        "id": 658,
                        "componentChemicalClassId": "4991343",
                        "chemicalId": "4990937",
                        "componentSourceId": "sdffedssa",
                        "componentMaterialId": "sdffedssa",
                        "composition": "sdffedssa",
                        "comments": "sdffedssa",
                        "activeFlag": "T",
                        "chemical": "amino benzoate",
                        "componentChemicalClass": "aminocarboline",
                        "componentSource": null,
                        "elementSymbol": null,
                        "elementCalValue": null,
                        "elementCalValueUnitId": null,
                        "elementCalValueUnit": null
                    }
                ],
                "sources": [
                    {
                        "id": 183502,
                        "sourceId": null,
                        "comments": "material sources",
                        "activeFlag": "T",
                        "source": null
                    }
                ],
                "auditLog": [
                    {
                        "id": 1658,
                        "columnName": null,
                        "valueOfColumn": null,
                        "materialBatchId": "B-000001945-003W",
                        "changeAuthorizedPersonId": null,
                        "changeAuthorizedDate": null,
                        "changeDescription": null,
                        "activeFlag": "T",
                        "effectiveStartDate": null,
                        "effectiveEndDate": null
                    }
                ],
                "materialTypeId": "4988856",
                "trivialName": null,
                "notebookPage": null,
                "oeb": 4,
                "linkerType": null,
                "originatingSystemRegistrationId": null,
                "isolate": [
                    {
                        "id": 658,
                        "supplierId": "534",
                        "supplierNumber": "435",
                        "antibiogramAttached": "gdsf",
                        "molecularSummary": "fdg",
                        "isolateOriginRegion": "fgd",
                        "isolateOriginCountry": "fd",
                        "isolateOriginState": "dhdf",
                        "organismName": "fdgd",
                        "organismFamilyName": "fhh",
                        "gramType": "dfd",
                        "isolateAge": 4,
                        "gender": "cv",
                        "yearCollected": "fhd",
                        "bodyLocation": "hd",
                        "facilityName": "sdg",
                        "esbl": "dsg",
                        "strainDesignation": "sfds",
                        "typeStrain": "dfgd",
                        "primaryDiagnosis": "sgfs",
                        "service": "sggs",
                        "sourceOfBsi": "sgs",
                        "nosocomialIsolate": "dfgd",
                        "activeFlag": "T",
                        "processId": "gghhjjh"
                    }
                ],
                "processId": null,
                "releasePayload": null,
                "modifiedBy": null,
                "department": null,
                "projectAssayId": null,
                "theoreticalMolecularWeightUnitId": null,
                "activeFlag": "T",
                "modifications": [
                    {
                        "id": 658,
                        "modificationType": "gdfgd",
                        "description": "dgdf",
                        "mutagenesisRationale": null,
                        "miscModificationMutagenesis": "hfghf",
                        "miscModificationCloning": "dfd",
                        "miscModificationDeletion5": "dhgd",
                        "miscModificationDeletion3": "dhd",
                        "miscModificationBlunted": "dhdf",
                        "modification5": "dhf",
                        "modification3": "dh",
                        "modificationBlunted": "fjhj",
                        "integrationLuci": "gjf",
                        "signalSequenceModification": "fj",
                        "meltingPointTemperature": 678,
                        "meltingPointTemperatureUnit": "jhg",
                        "materialModificationComments": "gjhg",
                        "activeFlag": "T",
                        "materialTypeId": "4988884",
                        "materialType": "yeast",
                        "modificationTypeId": null
                    }
                ],
                "absorbance": "23455",
                "payloadId": null,
                "extinctionCoefficient": null,
                "salt": null,
                "molecularWeightWithSalt": null,
                "materialType": "peptide",
                "registrarPersonId": null,
                "conjugateMethod": null,
                "createdDate": "2019-10-02 17:50:59",
                "cells": [
                    {
                        "id": 660,
                        "merckCellId": "2",
                        "comments": "e",
                        "activeFlag": "T",
                        "cellTypeId": "936692",
                        "cellType": "blood cell"
                    }
                ],
                "createdBy": "SB",
                "notebookId": null,
                "targetSiteName": null
            }
        }
    
}
